<?xml version="1.0"?>
<VTKFile type="UnstructuredGrid"  version="0.1"  >
<UnstructuredGrid>
<Piece  NumberOfPoints="81" NumberOfCells="128">
<Points>
<DataArray  type="Float64"  NumberOfComponents="3"  format="ascii">0 0 0  0.125 0 0  0.25 0 0  0.375 0 0  0.5 0 0  0.625 0 0  0.75 0 0  0.875 0 0  1 0 0  0 0.125 0  0.125 0.125 0  0.25 0.125 0  0.375 0.125 0  0.5 0.125 0  0.625 0.125 0  0.75 0.125 0  0.875 0.125 0  1 0.125 0  0 0.25 0  0.125 0.25 0  0.25 0.25 0  0.375 0.25 0  0.5 0.25 0  0.625 0.25 0  0.75 0.25 0  0.875 0.25 0  1 0.25 0  0 0.375 0  0.125 0.375 0  0.25 0.375 0  0.375 0.375 0  0.5 0.375 0  0.625 0.375 0  0.75 0.375 0  0.875 0.375 0  1 0.375 0  0 0.5 0  0.125 0.5 0  0.25 0.5 0  0.375 0.5 0  0.5 0.5 0  0.625 0.5 0  0.75 0.5 0  0.875 0.5 0  1 0.5 0  0 0.625 0  0.125 0.625 0  0.25 0.625 0  0.375 0.625 0  0.5 0.625 0  0.625 0.625 0  0.75 0.625 0  0.875 0.625 0  1 0.625 0  0 0.75 0  0.125 0.75 0  0.25 0.75 0  0.375 0.75 0  0.5 0.75 0  0.625 0.75 0  0.75 0.75 0  0.875 0.75 0  1 0.75 0  0 0.875 0  0.125 0.875 0  0.25 0.875 0  0.375 0.875 0  0.5 0.875 0  0.625 0.875 0  0.75 0.875 0  0.875 0.875 0  1 0.875 0  0 1 0  0.125 1 0  0.25 1 0  0.375 1 0  0.5 1 0  0.625 1 0  0.75 1 0  0.875 1 0  1 1 0  </DataArray>
</Points>
<Cells>
<DataArray  type="UInt32"  Name="connectivity"  format="ascii">0 1 10  0 9 10  1 2 11  1 10 11  2 3 12  2 11 12  3 4 13  3 12 13  4 5 14  4 13 14  5 6 15  5 14 15  6 7 16  6 15 16  7 8 17  7 16 17  9 10 19  9 18 19  10 11 20  10 19 20  11 12 21  11 20 21  12 13 22  12 21 22  13 14 23  13 22 23  14 15 24  14 23 24  15 16 25  15 24 25  16 17 26  16 25 26  18 19 28  18 27 28  19 20 29  19 28 29  20 21 30  20 29 30  21 22 31  21 30 31  22 23 32  22 31 32  23 24 33  23 32 33  24 25 34  24 33 34  25 26 35  25 34 35  27 28 37  27 36 37  28 29 38  28 37 38  29 30 39  29 38 39  30 31 40  30 39 40  31 32 41  31 40 41  32 33 42  32 41 42  33 34 43  33 42 43  34 35 44  34 43 44  36 37 46  36 45 46  37 38 47  37 46 47  38 39 48  38 47 48  39 40 49  39 48 49  40 41 50  40 49 50  41 42 51  41 50 51  42 43 52  42 51 52  43 44 53  43 52 53  45 46 55  45 54 55  46 47 56  46 55 56  47 48 57  47 56 57  48 49 58  48 57 58  49 50 59  49 58 59  50 51 60  50 59 60  51 52 61  51 60 61  52 53 62  52 61 62  54 55 64  54 63 64  55 56 65  55 64 65  56 57 66  56 65 66  57 58 67  57 66 67  58 59 68  58 67 68  59 60 69  59 68 69  60 61 70  60 69 70  61 62 71  61 70 71  63 64 73  63 72 73  64 65 74  64 73 74  65 66 75  65 74 75  66 67 76  66 75 76  67 68 77  67 76 77  68 69 78  68 77 78  69 70 79  69 78 79  70 71 80  70 79 80  </DataArray>
<DataArray  type="UInt32"  Name="offsets"  format="ascii">3 6 9 12 15 18 21 24 27 30 33 36 39 42 45 48 51 54 57 60 63 66 69 72 75 78 81 84 87 90 93 96 99 102 105 108 111 114 117 120 123 126 129 132 135 138 141 144 147 150 153 156 159 162 165 168 171 174 177 180 183 186 189 192 195 198 201 204 207 210 213 216 219 222 225 228 231 234 237 240 243 246 249 252 255 258 261 264 267 270 273 276 279 282 285 288 291 294 297 300 303 306 309 312 315 318 321 324 327 330 333 336 339 342 345 348 351 354 357 360 363 366 369 372 375 378 381 384 </DataArray>
<DataArray  type="UInt8"  Name="types"  format="ascii">5 5 5 5 5 5 5 5 5 5 5 5 5 5 5 5 5 5 5 5 5 5 5 5 5 5 5 5 5 5 5 5 5 5 5 5 5 5 5 5 5 5 5 5 5 5 5 5 5 5 5 5 5 5 5 5 5 5 5 5 5 5 5 5 5 5 5 5 5 5 5 5 5 5 5 5 5 5 5 5 5 5 5 5 5 5 5 5 5 5 5 5 5 5 5 5 5 5 5 5 5 5 5 5 5 5 5 5 5 5 5 5 5 5 5 5 5 5 5 5 5 5 5 5 5 5 5 5 </DataArray>
</Cells>
<PointData  Vectors="f_1348"> 
<DataArray  type="Float64"  Name="f_1348"  NumberOfComponents="3" format="ascii">0.0000000000000000e+00 0.0000000000000000e+00 0.0000000000000000e+00  0.0000000000000000e+00 0.0000000000000000e+00 0.0000000000000000e+00  0.0000000000000000e+00 0.0000000000000000e+00 0.0000000000000000e+00  0.0000000000000000e+00 0.0000000000000000e+00 0.0000000000000000e+00  0.0000000000000000e+00 0.0000000000000000e+00 0.0000000000000000e+00  0.0000000000000000e+00 0.0000000000000000e+00 0.0000000000000000e+00  0.0000000000000000e+00 0.0000000000000000e+00 0.0000000000000000e+00  0.0000000000000000e+00 0.0000000000000000e+00 0.0000000000000000e+00  0.0000000000000000e+00 0.0000000000000000e+00 0.0000000000000000e+00  0.0000000000000000e+00 0.0000000000000000e+00 0.0000000000000000e+00  1.1174426810417813e-03 2.2976089422053507e-03 0.0000000000000000e+00  1.0566105967567913e-03 3.6757859680578552e-03 0.0000000000000000e+00  4.0759280287125209e-04 4.5292891183913633e-03 0.0000000000000000e+00  -5.3494421677520681e-04 5.0180726991148877e-03 0.0000000000000000e+00  -1.6344633400946864e-03 5.2888550107452565e-03 0.0000000000000000e+00  -2.8770709502958414e-03 5.4981408339725441e-03 0.0000000000000000e+00  -4.3789890111314515e-03 5.8900038826964441e-03 0.0000000000000000e+00  -6.4306993675235114e-03 7.1302698277046269e-03 0.0000000000000000e+00  0.0000000000000000e+00 0.0000000000000000e+00 0.0000000000000000e+00  1.2360171821587413e-03 4.4891627325427076e-03 0.0000000000000000e+00  1.0902423751446289e-03 7.6679947030446789e-03 0.0000000000000000e+00  3.5812018558169956e-05 9.6086238691023822e-03 0.0000000000000000e+00  -1.5060593220098091e-03 1.0689257001370441e-02 0.0000000000000000e+00  -3.3173528992021745e-03 1.1259742333329260e-02 0.0000000000000000e+00  -5.3209346685098666e-03 1.1637634583405112e-02 0.0000000000000000e+00  -7.5220950628296784e-03 1.2199715285012742e-02 0.0000000000000000e+00  -9.9257907303491408e-03 1.3598830241308504e-02 0.0000000000000000e+00  0.0000000000000000e+00 0.0000000000000000e+00 0.0000000000000000e+00  1.1263163057450580e-03 7.1209654750834942e-03 0.0000000000000000e+00  6.7753454107696051e-04 1.2159881526956613e-02 0.0000000000000000e+00  -7.0048949821525474e-04 1.5201162977131824e-02 0.0000000000000000e+00  -2.5859236495421609e-03 1.6851121434792216e-02 0.0000000000000000e+00  -4.7636690328310355e-03 1.7671138855592981e-02 0.0000000000000000e+00  -7.1348276418626748e-03 1.8098476282880405e-02 0.0000000000000000e+00  -9.6221388984210152e-03 1.8541194111784440e-02 0.0000000000000000e+00  -1.2085168424681894e-02 1.9502740407269993e-02 0.0000000000000000e+00  0.0000000000000000e+00 0.0000000000000000e+00 0.0000000000000000e+00  9.2371493481514116e-04 1.0525872711262468e-02 0.0000000000000000e+00  8.5581002942093691e-05 1.7417581013364620e-02 0.0000000000000000e+00  -1.5356038523267920e-03 2.1344053314369969e-02 0.0000000000000000e+00  -3.5253693687204717e-03 2.3393158071480478e-02 0.0000000000000000e+00  -5.7600812809088442e-03 2.4349986729699191e-02 0.0000000000000000e+00  -8.1995078741922602e-03 2.4709425991783576e-02 0.0000000000000000e+00  -1.0751849038717948e-02 2.4828555863732220e-02 0.0000000000000000e+00  -1.3192262666498578e-02 2.5065209230852960e-02 0.0000000000000000e+00  0.0000000000000000e+00 0.0000000000000000e+00 0.0000000000000000e+00  6.2721210421464086e-04 1.5188374110526967e-02 0.0000000000000000e+00  -6.2225258603969898e-04 2.3683473170913537e-02 0.0000000000000000e+00  -2.3048359524207060e-03 2.8042399847875731e-02 0.0000000000000000e+00  -4.1048239672711716e-03 3.0185633802091431e-02 0.0000000000000000e+00  -6.0626130982628099e-03 3.1141173172583084e-02 0.0000000000000000e+00  -8.2817096383167518e-03 3.1381897959736595e-02 0.0000000000000000e+00  -1.0745797631821621e-02 3.1099104021802569e-02 0.0000000000000000e+00  -1.3168122084915740e-02 3.0437339005237922e-02 0.0000000000000000e+00  0.0000000000000000e+00 0.0000000000000000e+00 0.0000000000000000e+00  2.0007289803380691e-04 2.1991078528271854e-02 0.0000000000000000e+00  -1.3908373732528061e-03 3.1182880314371338e-02 0.0000000000000000e+00  -2.8069940350578591e-03 3.5199749484788830e-02 0.0000000000000000e+00  -4.0582380501395293e-03 3.7025602864796767e-02 0.0000000000000000e+00  -5.3886303455594302e-03 3.7828023750832634e-02 0.0000000000000000e+00  -7.0206575791634364e-03 3.8020486915041785e-02 0.0000000000000000e+00  -9.1913882104137472e-03 3.7467780463078991e-02 0.0000000000000000e+00  -1.1673548164601194e-02 3.5852314931637687e-02 0.0000000000000000e+00  0.0000000000000000e+00 0.0000000000000000e+00 0.0000000000000000e+00  -2.4780959234118379e-04 3.2601458529764690e-02 0.0000000000000000e+00  -1.8336508982033269e-03 4.0021903399571790e-02 0.0000000000000000e+00  -2.5193405233099550e-03 4.2592142727917948e-02 0.0000000000000000e+00  -2.9423207080448576e-03 4.3666448928137071e-02 0.0000000000000000e+00  -3.4451666098337273e-03 4.4152400433357310e-02 0.0000000000000000e+00  -4.2016975935183836e-03 4.4326975122519895e-02 0.0000000000000000e+00  -5.4334797443652775e-03 4.4084573465717716e-02 0.0000000000000000e+00  -8.0535161690389826e-03 4.1848223316816723e-02 0.0000000000000000e+00  0.0000000000000000e+00 0.0000000000000000e+00 0.0000000000000000e+00  0.0000000000000000e+00 5.0000000000000010e-02 0.0000000000000000e+00  0.0000000000000000e+00 5.0000000000000003e-02 0.0000000000000000e+00  0.0000000000000000e+00 5.0000000000000003e-02 0.0000000000000000e+00  0.0000000000000000e+00 5.0000000000000003e-02 0.0000000000000000e+00  0.0000000000000000e+00 5.0000000000000003e-02 0.0000000000000000e+00  0.0000000000000000e+00 5.0000000000000003e-02 0.0000000000000000e+00  0.0000000000000000e+00 5.0000000000000003e-02 0.0000000000000000e+00  0.0000000000000000e+00 5.0000000000000003e-02 0.0000000000000000e+00  </DataArray> 
</PointData> 
</Piece>
</UnstructuredGrid>
</VTKFile>