<?xml version="1.0"?>
<VTKFile type="UnstructuredGrid"  version="0.1"  >
<UnstructuredGrid>
<Piece  NumberOfPoints="81" NumberOfCells="128">
<Points>
<DataArray  type="Float64"  NumberOfComponents="3"  format="ascii">0 0 0  0.125 0 0  0.25 0 0  0.375 0 0  0.5 0 0  0.625 0 0  0.75 0 0  0.875 0 0  1 0 0  0 0.125 0  0.125 0.125 0  0.25 0.125 0  0.375 0.125 0  0.5 0.125 0  0.625 0.125 0  0.75 0.125 0  0.875 0.125 0  1 0.125 0  0 0.25 0  0.125 0.25 0  0.25 0.25 0  0.375 0.25 0  0.5 0.25 0  0.625 0.25 0  0.75 0.25 0  0.875 0.25 0  1 0.25 0  0 0.375 0  0.125 0.375 0  0.25 0.375 0  0.375 0.375 0  0.5 0.375 0  0.625 0.375 0  0.75 0.375 0  0.875 0.375 0  1 0.375 0  0 0.5 0  0.125 0.5 0  0.25 0.5 0  0.375 0.5 0  0.5 0.5 0  0.625 0.5 0  0.75 0.5 0  0.875 0.5 0  1 0.5 0  0 0.625 0  0.125 0.625 0  0.25 0.625 0  0.375 0.625 0  0.5 0.625 0  0.625 0.625 0  0.75 0.625 0  0.875 0.625 0  1 0.625 0  0 0.75 0  0.125 0.75 0  0.25 0.75 0  0.375 0.75 0  0.5 0.75 0  0.625 0.75 0  0.75 0.75 0  0.875 0.75 0  1 0.75 0  0 0.875 0  0.125 0.875 0  0.25 0.875 0  0.375 0.875 0  0.5 0.875 0  0.625 0.875 0  0.75 0.875 0  0.875 0.875 0  1 0.875 0  0 1 0  0.125 1 0  0.25 1 0  0.375 1 0  0.5 1 0  0.625 1 0  0.75 1 0  0.875 1 0  1 1 0  </DataArray>
</Points>
<Cells>
<DataArray  type="UInt32"  Name="connectivity"  format="ascii">0 1 10  0 9 10  1 2 11  1 10 11  2 3 12  2 11 12  3 4 13  3 12 13  4 5 14  4 13 14  5 6 15  5 14 15  6 7 16  6 15 16  7 8 17  7 16 17  9 10 19  9 18 19  10 11 20  10 19 20  11 12 21  11 20 21  12 13 22  12 21 22  13 14 23  13 22 23  14 15 24  14 23 24  15 16 25  15 24 25  16 17 26  16 25 26  18 19 28  18 27 28  19 20 29  19 28 29  20 21 30  20 29 30  21 22 31  21 30 31  22 23 32  22 31 32  23 24 33  23 32 33  24 25 34  24 33 34  25 26 35  25 34 35  27 28 37  27 36 37  28 29 38  28 37 38  29 30 39  29 38 39  30 31 40  30 39 40  31 32 41  31 40 41  32 33 42  32 41 42  33 34 43  33 42 43  34 35 44  34 43 44  36 37 46  36 45 46  37 38 47  37 46 47  38 39 48  38 47 48  39 40 49  39 48 49  40 41 50  40 49 50  41 42 51  41 50 51  42 43 52  42 51 52  43 44 53  43 52 53  45 46 55  45 54 55  46 47 56  46 55 56  47 48 57  47 56 57  48 49 58  48 57 58  49 50 59  49 58 59  50 51 60  50 59 60  51 52 61  51 60 61  52 53 62  52 61 62  54 55 64  54 63 64  55 56 65  55 64 65  56 57 66  56 65 66  57 58 67  57 66 67  58 59 68  58 67 68  59 60 69  59 68 69  60 61 70  60 69 70  61 62 71  61 70 71  63 64 73  63 72 73  64 65 74  64 73 74  65 66 75  65 74 75  66 67 76  66 75 76  67 68 77  67 76 77  68 69 78  68 77 78  69 70 79  69 78 79  70 71 80  70 79 80  </DataArray>
<DataArray  type="UInt32"  Name="offsets"  format="ascii">3 6 9 12 15 18 21 24 27 30 33 36 39 42 45 48 51 54 57 60 63 66 69 72 75 78 81 84 87 90 93 96 99 102 105 108 111 114 117 120 123 126 129 132 135 138 141 144 147 150 153 156 159 162 165 168 171 174 177 180 183 186 189 192 195 198 201 204 207 210 213 216 219 222 225 228 231 234 237 240 243 246 249 252 255 258 261 264 267 270 273 276 279 282 285 288 291 294 297 300 303 306 309 312 315 318 321 324 327 330 333 336 339 342 345 348 351 354 357 360 363 366 369 372 375 378 381 384 </DataArray>
<DataArray  type="UInt8"  Name="types"  format="ascii">5 5 5 5 5 5 5 5 5 5 5 5 5 5 5 5 5 5 5 5 5 5 5 5 5 5 5 5 5 5 5 5 5 5 5 5 5 5 5 5 5 5 5 5 5 5 5 5 5 5 5 5 5 5 5 5 5 5 5 5 5 5 5 5 5 5 5 5 5 5 5 5 5 5 5 5 5 5 5 5 5 5 5 5 5 5 5 5 5 5 5 5 5 5 5 5 5 5 5 5 5 5 5 5 5 5 5 5 5 5 5 5 5 5 5 5 5 5 5 5 5 5 5 5 5 5 5 5 </DataArray>
</Cells>
<PointData  Scalars="f_1387"> 
<DataArray  type="Float64"  Name="f_1387"  format="ascii">4.8818771732831554e-06  7.7207331800250613e-06  6.9243601763285985e-06  5.1800884832686700e-06  3.4318851973482844e-06  2.3809425351163080e-06  1.1373279978669299e-06  2.4342985398859198e-06  2.4541833074079233e-06  5.6482784143148477e-06  2.5384852021436552e-03  3.8041939697999383e-03  4.5280356978330688e-03  5.0297410983304513e-03  5.5215475217157374e-03  6.1935524601601294e-03  7.3313632971292262e-03  9.5944614450811597e-03  5.2501742718546254e-06  4.6410080027219618e-03  7.7166762818148098e-03  9.5815876617337658e-03  1.0772171346204418e-02  1.1719643555136551e-02  1.2781282852498077e-02  1.4322069908197555e-02  1.6827825373400530e-02  4.2014294038047323e-06  7.1979556925053506e-03  1.2158382360334423e-02  1.5198604063458857e-02  1.7031739183937827e-02  1.8286629635041060e-02  1.9439509178654370e-02  2.0877305572579032e-02  2.2934876568357469e-02  3.8921604850368496e-06  1.0557158329913692e-02  1.7402528687283970e-02  2.1386667664971836e-02  2.3646262863345834e-02  2.5010732271948444e-02  2.6021223334049697e-02  2.7043011402569924e-02  2.8313018420036314e-02  3.1816504826581676e-06  1.5192837121153340e-02  2.3680105615101556e-02  2.8130315827550274e-02  3.0458061112849565e-02  3.1718325238016147e-02  3.2443092332113614e-02  3.2885357635220207e-02  3.3146146417084688e-02  1.5447332009619380e-06  2.1986615365425226e-02  3.1208912579873700e-02  3.5311042368080359e-02  3.7245227180359164e-02  3.8202941515497038e-02  3.8647872629347428e-02  3.8555739128459429e-02  3.7677723687116464e-02  -1.1047191519768846e-07  3.2600976735382210e-02  4.0056385080648634e-02  4.2660812075297982e-02  4.3755137183359764e-02  4.4270257303328807e-02  4.4498055399170636e-02  4.4366893601236863e-02  4.2543226894932555e-02  -4.5112553589162351e-07  5.0001012722987008e-02  4.9996249864030937e-02  4.9987312478835033e-02  4.9980740916856801e-02  4.9976648841695170e-02  4.9967155920216388e-02  4.9958385386272446e-02  4.9879302691293093e-02  </DataArray> 
</PointData> 
</Piece>
</UnstructuredGrid>
</VTKFile>